<?xml version="1.0"?>
<VTKFile type="UnstructuredGrid" version="1.0">
<UnstructuredGrid>
<Piece NumberOfPoints="64" NumberOfCells="60">
<Points>
<DataArray type="Float32" NumberOfComponents="3" format="ascii">
 -2.000000000000E+01 -1.000000000000E+01  0.000000000000E+00
 -1.800000000000E+01 -1.000000000000E+01  0.000000000000E+00
 -1.600000000000E+01 -1.000000000000E+01  0.000000000000E+00
 -1.400000000000E+01 -1.000000000000E+01  0.000000000000E+00
 -1.200000000000E+01 -1.000000000000E+01  0.000000000000E+00
 -1.000000000000E+01 -1.000000000000E+01  0.000000000000E+00
 -8.000000000000E+00 -1.000000000000E+01  0.000000000000E+00
 -6.000000000000E+00 -1.000000000000E+01  0.000000000000E+00
 -4.000000000000E+00 -1.000000000000E+01  0.000000000000E+00
 -2.000000000000E+00 -1.000000000000E+01  0.000000000000E+00
  0.000000000000E+00 -1.000000000000E+01  0.000000000000E+00
  2.000000000000E+00 -1.000000000000E+01  0.000000000000E+00
  4.000000000000E+00 -1.000000000000E+01  0.000000000000E+00
  6.000000000000E+00 -1.000000000000E+01  0.000000000000E+00
  8.000000000000E+00 -1.000000000000E+01  0.000000000000E+00
  1.000000000000E+01 -1.000000000000E+01  0.000000000000E+00
  1.200000000000E+01 -1.000000000000E+01  0.000000000000E+00
  1.400000000000E+01 -1.000000000000E+01  0.000000000000E+00
  1.600000000000E+01 -1.000000000000E+01  0.000000000000E+00
  1.800000000000E+01 -1.000000000000E+01  0.000000000000E+00
  2.000000000000E+01 -1.000000000000E+01  0.000000000000E+00
 -7.778174400330E+00 -4.242640495300E+00  0.000000000000E+00
 -7.057492256165E+00 -4.602285385132E+00  0.000000000000E+00
 -6.314450740814E+00 -4.912959575653E+00  0.000000000000E+00
 -5.554775714874E+00 -5.178787708282E+00  0.000000000000E+00
 -4.781059265137E+00 -5.403620719910E+00  0.000000000000E+00
 -3.997910022736E+00 -5.589690685272E+00  0.000000000000E+00
 -3.206356763840E+00 -5.739449024200E+00  0.000000000000E+00
 -2.409692049026E+00 -5.854264259338E+00  0.000000000000E+00
 -1.608052849770E+00 -5.935542106628E+00  0.000000000000E+00
 -8.044713139534E-01 -5.983932971954E+00  0.000000000000E+00
  8.639379520901E-04 -6.000000000000E+00  0.000000000000E+00
  8.053329586983E-01 -5.983898162842E+00  0.000000000000E+00
  1.608907461166E+00 -5.935473442078E+00  0.000000000000E+00
  2.410535097122E+00 -5.854161262512E+00  0.000000000000E+00
  3.207183122635E+00 -5.739311218262E+00  0.000000000000E+00
  3.998714685440E+00 -5.589519500732E+00  0.000000000000E+00
  4.781837463379E+00 -5.403415679932E+00  0.000000000000E+00
  5.555521488190E+00 -5.178549766541E+00  0.000000000000E+00
  6.315158367157E+00 -4.912688732147E+00  0.000000000000E+00
  7.058155059814E+00 -4.601983070374E+00  0.000000000000E+00
  7.778174400330E+00 -4.242640495300E+00  0.000000000000E+00
 -2.000000000000E+01 -1.000000000000E+01  0.000000000000E+00
 -1.877781677246E+01 -9.424263954163E+00  0.000000000000E+00
 -1.755563545227E+01 -8.848527908325E+00  0.000000000000E+00
 -1.633345222473E+01 -8.272791862488E+00  0.000000000000E+00
 -1.511126995087E+01 -7.697056293488E+00  0.000000000000E+00
 -1.388908767700E+01 -7.121320247650E+00  0.000000000000E+00
 -1.266690444946E+01 -6.545584201813E+00  0.000000000000E+00
 -1.144472217560E+01 -5.969848632812E+00  0.000000000000E+00
 -1.022253990173E+01 -5.394112586975E+00  0.000000000000E+00
 -9.000356674194E+00 -4.818376541138E+00  0.000000000000E+00
 -7.778174400330E+00 -4.242640495300E+00  0.000000000000E+00
  2.000000000000E+01 -1.000000000000E+01  0.000000000000E+00
  1.877781677246E+01 -9.424263954163E+00  0.000000000000E+00
  1.755563545227E+01 -8.848527908325E+00  0.000000000000E+00
  1.633345222473E+01 -8.272791862488E+00  0.000000000000E+00
  1.511126995087E+01 -7.697056293488E+00  0.000000000000E+00
  1.388908767700E+01 -7.121320247650E+00  0.000000000000E+00
  1.266690444946E+01 -6.545584201813E+00  0.000000000000E+00
  1.144472217560E+01 -5.969848632812E+00  0.000000000000E+00
  1.022253990173E+01 -5.394112586975E+00  0.000000000000E+00
  9.000356674194E+00 -4.818376541138E+00  0.000000000000E+00
  7.778174400330E+00 -4.242640495300E+00  0.000000000000E+00
</DataArray>
</Points>
<Cells>
<DataArray type="Int32" Name="connectivity" format="ascii">
       0       1
       1       2
       2       3
       3       4
       4       5
       5       6
       6       7
       7       8
       8       9
       9      10
      10      11
      11      12
      12      13
      13      14
      14      15
      15      16
      16      17
      17      18
      18      19
      19      20
      21      22
      22      23
      23      24
      24      25
      25      26
      26      27
      27      28
      28      29
      29      30
      30      31
      31      32
      32      33
      33      34
      34      35
      35      36
      36      37
      37      38
      38      39
      39      40
      40      41
      42      43
      43      44
      44      45
      45      46
      46      47
      47      48
      48      49
      49      50
      50      51
      51      52
      53      54
      54      55
      55      56
      56      57
      57      58
      58      59
      59      60
      60      61
      61      62
      62      63
</DataArray>
<DataArray type="Int32" Name="offsets" format="ascii">
 2 4 6 8 10 12 14 16 18 20 22 24 26 28 30 32 34 36 38 40 42 44 46 48 50 52 54 56 58 60 62 64 66 68 70 72 74 76 78 80 82 84 86 88 90 92 94 96 98 100 102 104 106 108 110 112 114 116 118 120 
</DataArray>
<DataArray type="UInt8" Name="types" format="ascii">
  3  3  3  3  3  3  3  3  3  3  3  3  3  3  3  3  3  3  3  3  3  3  3  3  3  3  3  3  3  3  3  3  3  3  3  3  3  3  3  3  3  3  3  3  3  3  3  3  3  3  3  3  3  3  3  3  3  3  3  3 
</DataArray>
</Cells>
<CellData>
<DataArray type="Int32" Name="mat_id" NumberOfComponents="1" format="ascii">
1
1
1
1
1
1
1
1
1
1
1
1
1
1
1
1
1
1
1
1
2
2
2
2
2
2
2
2
2
2
2
2
2
2
2
2
2
2
2
2
3
3
3
3
3
3
3
3
3
3
4
4
4
4
4
4
4
4
4
4
</DataArray>
</CellData>
</Piece>
</UnstructuredGrid>
</VTKFile>
