<?xml version="1.0"?>
<VTKFile type="UnstructuredGrid" version="1.0">
<UnstructuredGrid>
<Piece NumberOfPoints="52" NumberOfCells="48">
<Points>
<DataArray type="Float32" NumberOfComponents="3" format="ascii">
 -7.778174400330E+00 -4.242640495300E+00  0.000000000000E+00
 -7.057492256165E+00 -4.602285385132E+00  0.000000000000E+00
 -6.314450740814E+00 -4.912959575653E+00  0.000000000000E+00
 -5.554775714874E+00 -5.178787708282E+00  0.000000000000E+00
 -4.781059265137E+00 -5.403620719910E+00  0.000000000000E+00
 -3.997910022736E+00 -5.589690685272E+00  0.000000000000E+00
 -3.206356763840E+00 -5.739449024200E+00  0.000000000000E+00
 -2.409692049026E+00 -5.854264259338E+00  0.000000000000E+00
 -1.608052849770E+00 -5.935542106628E+00  0.000000000000E+00
 -8.044713139534E-01 -5.983932971954E+00  0.000000000000E+00
  8.639379520901E-04 -6.000000000000E+00  0.000000000000E+00
  8.053329586983E-01 -5.983898162842E+00  0.000000000000E+00
  1.608907461166E+00 -5.935473442078E+00  0.000000000000E+00
  2.410535097122E+00 -5.854161262512E+00  0.000000000000E+00
  3.207183122635E+00 -5.739311218262E+00  0.000000000000E+00
  3.998714685440E+00 -5.589519500732E+00  0.000000000000E+00
  4.781837463379E+00 -5.403415679932E+00  0.000000000000E+00
  5.555521488190E+00 -5.178549766541E+00  0.000000000000E+00
  6.315158367157E+00 -4.912688732147E+00  0.000000000000E+00
  7.058155059814E+00 -4.601983070374E+00  0.000000000000E+00
  7.778174400330E+00 -4.242640495300E+00  0.000000000000E+00
 -7.071067810059E+00 -3.535533905029E+00  0.000000000000E+00
 -6.408669948578E+00 -3.838259696960E+00  0.000000000000E+00
 -5.728184700012E+00 -4.098411560059E+00  0.000000000000E+00
 -5.034874916077E+00 -4.320012569427E+00  0.000000000000E+00
 -4.330849647522E+00 -4.506765365601E+00  0.000000000000E+00
 -3.619093179703E+00 -4.661066532135E+00  0.000000000000E+00
 -2.902095079422E+00 -4.784815788269E+00  0.000000000000E+00
 -2.179899454117E+00 -4.879755020142E+00  0.000000000000E+00
 -1.454873204231E+00 -4.946800708771E+00  0.000000000000E+00
 -7.274210453033E-01 -4.986753940582E+00  0.000000000000E+00
  7.853981223889E-04 -5.000000000000E+00  0.000000000000E+00
  7.282043695450E-01 -4.986725330353E+00  0.000000000000E+00
  1.455650210381E+00 -4.946743488312E+00  0.000000000000E+00
  2.180665969849E+00 -4.879669666290E+00  0.000000000000E+00
  2.902846813202E+00 -4.784701824188E+00  0.000000000000E+00
  3.619825363159E+00 -4.660924434662E+00  0.000000000000E+00
  4.331557750702E+00 -4.506595611572E+00  0.000000000000E+00
  5.035553455353E+00 -4.319814682007E+00  0.000000000000E+00
  5.728828430176E+00 -4.098186492920E+00  0.000000000000E+00
  6.409272670746E+00 -3.838007926941E+00  0.000000000000E+00
  7.071067810059E+00 -3.535533905029E+00  0.000000000000E+00
 -7.778174400330E+00 -4.242640495300E+00  0.000000000000E+00
 -7.601397991180E+00 -4.065864086151E+00  0.000000000000E+00
 -7.424621105194E+00 -3.889087200165E+00  0.000000000000E+00
 -7.247844696045E+00 -3.712310552597E+00  0.000000000000E+00
 -7.071067810059E+00 -3.535533905029E+00  0.000000000000E+00
  7.778174400330E+00 -4.242640495300E+00  0.000000000000E+00
  7.601397991180E+00 -4.065864086151E+00  0.000000000000E+00
  7.424621105194E+00 -3.889087200165E+00  0.000000000000E+00
  7.247844696045E+00 -3.712310552597E+00  0.000000000000E+00
  7.071067810059E+00 -3.535533905029E+00  0.000000000000E+00
</DataArray>
</Points>
<Cells>
<DataArray type="Int32" Name="connectivity" format="ascii">
       0       1
       1       2
       2       3
       3       4
       4       5
       5       6
       6       7
       7       8
       8       9
       9      10
      10      11
      11      12
      12      13
      13      14
      14      15
      15      16
      16      17
      17      18
      18      19
      19      20
      21      22
      22      23
      23      24
      24      25
      25      26
      26      27
      27      28
      28      29
      29      30
      30      31
      31      32
      32      33
      33      34
      34      35
      35      36
      36      37
      37      38
      38      39
      39      40
      40      41
      42      43
      43      44
      44      45
      45      46
      47      48
      48      49
      49      50
      50      51
</DataArray>
<DataArray type="Int32" Name="offsets" format="ascii">
 2 4 6 8 10 12 14 16 18 20 22 24 26 28 30 32 34 36 38 40 42 44 46 48 50 52 54 56 58 60 62 64 66 68 70 72 74 76 78 80 82 84 86 88 90 92 94 96 
</DataArray>
<DataArray type="UInt8" Name="types" format="ascii">
  3  3  3  3  3  3  3  3  3  3  3  3  3  3  3  3  3  3  3  3  3  3  3  3  3  3  3  3  3  3  3  3  3  3  3  3  3  3  3  3  3  3  3  3  3  3  3  3 
</DataArray>
</Cells>
<CellData>
<DataArray type="Int32" Name="mat_id" NumberOfComponents="1" format="ascii">
1
1
1
1
1
1
1
1
1
1
1
1
1
1
1
1
1
1
1
1
2
2
2
2
2
2
2
2
2
2
2
2
2
2
2
2
2
2
2
2
3
3
3
3
4
4
4
4
</DataArray>
</CellData>
</Piece>
</UnstructuredGrid>
</VTKFile>
