<?xml version="1.0"?>
<VTKFile type="UnstructuredGrid" version="1.0">
<UnstructuredGrid>
<Piece NumberOfPoints="32" NumberOfCells="28">
<Points>
<DataArray type="Float32" NumberOfComponents="3" format="ascii">
  7.778174400330E+00 -4.242640495300E+00  0.000000000000E+00
  8.727587699890E+00 -3.652070045471E+00  0.000000000000E+00
  9.588154792786E+00 -2.940768480301E+00  0.000000000000E+00
  1.031050300598E+01 -2.090843439102E+00  0.000000000000E+00
  1.081475257874E+01 -1.096501946449E+00  0.000000000000E+00
  1.100000000000E+01 -6.302999029824E-13  0.000000000000E+00
  1.081443691254E+01  1.097428560257E+00  0.000000000000E+00
  1.030990123749E+01  2.091726779938E+00  0.000000000000E+00
  9.587307929993E+00  2.941589832306E+00  0.000000000000E+00
  8.726535797119E+00  3.652817726135E+00  0.000000000000E+00
  7.778174400330E+00  4.242640495300E+00  0.000000000000E+00
  7.071067810059E+00 -3.535533905029E+00  0.000000000000E+00
  7.911168098450E+00 -3.058325529099E+00  0.000000000000E+00
  8.683200836182E+00 -2.480021715164E+00  0.000000000000E+00
  9.344967842102E+00 -1.779857754707E+00  0.000000000000E+00
  9.820509910583E+00 -9.430777430534E-01  0.000000000000E+00
  1.000000000000E+01 -5.252499281870E-13  0.000000000000E+00
  9.820213317871E+00  9.438490271568E-01  0.000000000000E+00
  9.344408988953E+00  1.780591607094E+00  0.000000000000E+00
  8.682420730591E+00  2.480703592300E+00  0.000000000000E+00
  7.910206794739E+00  3.058946847916E+00  0.000000000000E+00
  7.071067810059E+00  3.535533905029E+00  0.000000000000E+00
  7.778174400330E+00 -4.242640495300E+00  0.000000000000E+00
  7.601397991180E+00 -4.065864086151E+00  0.000000000000E+00
  7.424621105194E+00 -3.889087200165E+00  0.000000000000E+00
  7.247844696045E+00 -3.712310552597E+00  0.000000000000E+00
  7.071067810059E+00 -3.535533905029E+00  0.000000000000E+00
  7.778174400330E+00  4.242640495300E+00  0.000000000000E+00
  7.601397991180E+00  4.065864086151E+00  0.000000000000E+00
  7.424621105194E+00  3.889087200165E+00  0.000000000000E+00
  7.247844696045E+00  3.712310552597E+00  0.000000000000E+00
  7.071067810059E+00  3.535533905029E+00  0.000000000000E+00
</DataArray>
</Points>
<Cells>
<DataArray type="Int32" Name="connectivity" format="ascii">
       0       1
       1       2
       2       3
       3       4
       4       5
       5       6
       6       7
       7       8
       8       9
       9      10
      11      12
      12      13
      13      14
      14      15
      15      16
      16      17
      17      18
      18      19
      19      20
      20      21
      22      23
      23      24
      24      25
      25      26
      27      28
      28      29
      29      30
      30      31
</DataArray>
<DataArray type="Int32" Name="offsets" format="ascii">
 2 4 6 8 10 12 14 16 18 20 22 24 26 28 30 32 34 36 38 40 42 44 46 48 50 52 54 56 
</DataArray>
<DataArray type="UInt8" Name="types" format="ascii">
  3  3  3  3  3  3  3  3  3  3  3  3  3  3  3  3  3  3  3  3  3  3  3  3  3  3  3  3 
</DataArray>
</Cells>
<CellData>
<DataArray type="Int32" Name="mat_id" NumberOfComponents="1" format="ascii">
1
1
1
1
1
1
1
1
1
1
2
2
2
2
2
2
2
2
2
2
3
3
3
3
4
4
4
4
</DataArray>
</CellData>
</Piece>
</UnstructuredGrid>
</VTKFile>
