<?xml version="1.0"?>
<VTKFile type="UnstructuredGrid" version="1.0">
<UnstructuredGrid>
<Piece NumberOfPoints="55" NumberOfCells="40">
<Points>
<DataArray type="Float32" NumberOfComponents="3" format="ascii">
 -7.778174400330E+00  4.242640495300E+00  0.000000000000E+00
 -7.601397991180E+00  4.065864086151E+00  0.000000000000E+00
 -7.424621105194E+00  3.889087200165E+00  0.000000000000E+00
 -7.247844696045E+00  3.712310552597E+00  0.000000000000E+00
 -7.071067810059E+00  3.535533905029E+00  0.000000000000E+00
 -8.727587699890E+00  3.652070045471E+00  0.000000000000E+00
 -8.523483276367E+00  3.503633975983E+00  0.000000000000E+00
 -8.319377899170E+00  3.355197906494E+00  0.000000000000E+00
 -8.115272521973E+00  3.206761837006E+00  0.000000000000E+00
 -7.911168098450E+00  3.058325529099E+00  0.000000000000E+00
 -9.588154792786E+00  2.940768480301E+00  0.000000000000E+00
 -9.361916542053E+00  2.825581789017E+00  0.000000000000E+00
 -9.135677337646E+00  2.710395097733E+00  0.000000000000E+00
 -8.909439086914E+00  2.595208406448E+00  0.000000000000E+00
 -8.683200836182E+00  2.480021715164E+00  0.000000000000E+00
 -1.031050300598E+01  2.090843439102E+00  0.000000000000E+00
 -1.006911945343E+01  2.013097047806E+00  0.000000000000E+00
 -9.827735900879E+00  1.935350537300E+00  0.000000000000E+00
 -9.586351394653E+00  1.857604146004E+00  0.000000000000E+00
 -9.344967842102E+00  1.779857754707E+00  0.000000000000E+00
 -1.081475257874E+01  1.096501946449E+00  0.000000000000E+00
 -1.056619262695E+01  1.058145880699E+00  0.000000000000E+00
 -1.031763172150E+01  1.019789814949E+00  0.000000000000E+00
 -1.006907081604E+01  9.814338088036E-01  0.000000000000E+00
 -9.820509910583E+00  9.430777430534E-01  0.000000000000E+00
 -1.100000000000E+01  9.193381299288E-12  0.000000000000E+00
 -1.075000000000E+01  8.810323998132E-12  0.000000000000E+00
 -1.050000000000E+01  8.427266696975E-12  0.000000000000E+00
 -1.025000000000E+01  8.044319550760E-12  0.000000000000E+00
 -1.000000000000E+01  7.661151227301E-12  0.000000000000E+00
 -1.081443691254E+01 -1.097428560257E+00  0.000000000000E+00
 -1.056588077545E+01 -1.059033632278E+00  0.000000000000E+00
 -1.031732559204E+01 -1.020638823509E+00  0.000000000000E+00
 -1.006876945496E+01 -9.822438955307E-01  0.000000000000E+00
 -9.820213317871E+00 -9.438490271568E-01  0.000000000000E+00
 -1.030990123749E+01 -2.091726779938E+00  0.000000000000E+00
 -1.006852817535E+01 -2.013942956924E+00  0.000000000000E+00
 -9.827155113220E+00 -1.936159253120E+00  0.000000000000E+00
 -9.585782051086E+00 -1.858375430107E+00  0.000000000000E+00
 -9.344408988953E+00 -1.780591607094E+00  0.000000000000E+00
 -9.587307929993E+00 -2.941589832306E+00  0.000000000000E+00
 -9.361085891724E+00 -2.826368331909E+00  0.000000000000E+00
 -9.134864807129E+00 -2.711146831512E+00  0.000000000000E+00
 -8.908642768860E+00 -2.595925331116E+00  0.000000000000E+00
 -8.682420730591E+00 -2.480703592300E+00  0.000000000000E+00
 -8.726535797119E+00 -3.652817726135E+00  0.000000000000E+00
 -8.522454261780E+00 -3.504350185394E+00  0.000000000000E+00
 -8.318371772766E+00 -3.355882406235E+00  0.000000000000E+00
 -8.114289283752E+00 -3.207414627075E+00  0.000000000000E+00
 -7.910206794739E+00 -3.058946847916E+00  0.000000000000E+00
 -7.778174400330E+00 -4.242640495300E+00  0.000000000000E+00
 -7.601397991180E+00 -4.065864086151E+00  0.000000000000E+00
 -7.424621105194E+00 -3.889087200165E+00  0.000000000000E+00
 -7.247844696045E+00 -3.712310552597E+00  0.000000000000E+00
 -7.071067810059E+00 -3.535533905029E+00  0.000000000000E+00
</DataArray>
</Points>
<Cells>
<DataArray type="Int32" Name="connectivity" format="ascii">
       0       5       6       1
       1       6       7       2
       2       7       8       3
       3       8       9       4
       5      10      11       6
       6      11      12       7
       7      12      13       8
       8      13      14       9
      10      15      16      11
      11      16      17      12
      12      17      18      13
      13      18      19      14
      15      20      21      16
      16      21      22      17
      17      22      23      18
      18      23      24      19
      20      25      26      21
      21      26      27      22
      22      27      28      23
      23      28      29      24
      25      30      31      26
      26      31      32      27
      27      32      33      28
      28      33      34      29
      30      35      36      31
      31      36      37      32
      32      37      38      33
      33      38      39      34
      35      40      41      36
      36      41      42      37
      37      42      43      38
      38      43      44      39
      40      45      46      41
      41      46      47      42
      42      47      48      43
      43      48      49      44
      45      50      51      46
      46      51      52      47
      47      52      53      48
      48      53      54      49
</DataArray>
<DataArray type="Int32" Name="offsets" format="ascii">
 4 8 12 16 20 24 28 32 36 40 44 48 52 56 60 64 68 72 76 80 84 88 92 96 100 104 108 112 116 120 124 128 132 136 140 144 148 152 156 160 
</DataArray>
<DataArray type="UInt8" Name="types" format="ascii">
  9  9  9  9  9  9  9  9  9  9  9  9  9  9  9  9  9  9  9  9  9  9  9  9  9  9  9  9  9  9  9  9  9  9  9  9  9  9  9  9 
</DataArray>
</Cells>
<CellData>
<DataArray type="Int32" Name="mat_id" NumberOfComponents="1" format="ascii">
1
1
1
1
1
1
1
1
1
1
1
1
1
1
1
1
1
1
1
1
1
1
1
1
1
1
1
1
1
1
1
1
1
1
1
1
1
1
1
1
</DataArray>
</CellData>
</Piece>
</UnstructuredGrid>
</VTKFile>
