<?xml version="1.0"?>
<VTKFile type="UnstructuredGrid" version="1.0">
<UnstructuredGrid>
<Piece NumberOfPoints="121" NumberOfCells="100">
<Points>
<DataArray type="Float32" NumberOfComponents="3" format="ascii">
 -2.000000000000E+01  1.000000000000E+01  0.000000000000E+00
 -1.877781677246E+01  9.424263954163E+00  0.000000000000E+00
 -1.755563545227E+01  8.848527908325E+00  0.000000000000E+00
 -1.633345222473E+01  8.272791862488E+00  0.000000000000E+00
 -1.511126995087E+01  7.697056293488E+00  0.000000000000E+00
 -1.388908767700E+01  7.121320247650E+00  0.000000000000E+00
 -1.266690444946E+01  6.545584201813E+00  0.000000000000E+00
 -1.144472217560E+01  5.969848632812E+00  0.000000000000E+00
 -1.022253990173E+01  5.394112586975E+00  0.000000000000E+00
 -9.000356674194E+00  4.818376541138E+00  0.000000000000E+00
 -7.778174400330E+00  4.242640495300E+00  0.000000000000E+00
 -2.000000000000E+01  8.000000000000E+00  0.000000000000E+00
 -1.887275886536E+01  7.565207004547E+00  0.000000000000E+00
 -1.774551773071E+01  7.130414009094E+00  0.000000000000E+00
 -1.661827659607E+01  6.695621013641E+00  0.000000000000E+00
 -1.549103546143E+01  6.260828018188E+00  0.000000000000E+00
 -1.436379432678E+01  5.826035022736E+00  0.000000000000E+00
 -1.323655319214E+01  5.391242027283E+00  0.000000000000E+00
 -1.210931110382E+01  4.956449031830E+00  0.000000000000E+00
 -1.098206996918E+01  4.521656036377E+00  0.000000000000E+00
 -9.854828834534E+00  4.086863040924E+00  0.000000000000E+00
 -8.727587699890E+00  3.652070045471E+00  0.000000000000E+00
 -2.000000000000E+01  6.000000000000E+00  0.000000000000E+00
 -1.895881462097E+01  5.694077014923E+00  0.000000000000E+00
 -1.791763114929E+01  5.388153553009E+00  0.000000000000E+00
 -1.687644577026E+01  5.082230567932E+00  0.000000000000E+00
 -1.583526229858E+01  4.776307582855E+00  0.000000000000E+00
 -1.479407691956E+01  4.470384120941E+00  0.000000000000E+00
 -1.375289249420E+01  4.164461135864E+00  0.000000000000E+00
 -1.271170806885E+01  3.858537912369E+00  0.000000000000E+00
 -1.167052364349E+01  3.552614688873E+00  0.000000000000E+00
 -1.062933921814E+01  3.246691703796E+00  0.000000000000E+00
 -9.588154792786E+00  2.940768480301E+00  0.000000000000E+00
 -2.000000000000E+01  4.000000000000E+00  0.000000000000E+00
 -1.903104972839E+01  3.809084415436E+00  0.000000000000E+00
 -1.806210136414E+01  3.618168592453E+00  0.000000000000E+00
 -1.709315109253E+01  3.427253007889E+00  0.000000000000E+00
 -1.612420082092E+01  3.236337423325E+00  0.000000000000E+00
 -1.515525150299E+01  3.045421600342E+00  0.000000000000E+00
 -1.418630218506E+01  2.854506015778E+00  0.000000000000E+00
 -1.321735191345E+01  2.663590431213E+00  0.000000000000E+00
 -1.224840259552E+01  2.472674608231E+00  0.000000000000E+00
 -1.127945327759E+01  2.281759023666E+00  0.000000000000E+00
 -1.031050300598E+01  2.090843439102E+00  0.000000000000E+00
 -2.000000000000E+01  2.000000000000E+00  0.000000000000E+00
 -1.908147621155E+01  1.909650206566E+00  0.000000000000E+00
 -1.816295051575E+01  1.819300413132E+00  0.000000000000E+00
 -1.724442672729E+01  1.728950619698E+00  0.000000000000E+00
 -1.632590103149E+01  1.638600826263E+00  0.000000000000E+00
 -1.540737628937E+01  1.548251032829E+00  0.000000000000E+00
 -1.448885154724E+01  1.457901239395E+00  0.000000000000E+00
 -1.357032680511E+01  1.367551445961E+00  0.000000000000E+00
 -1.265180206299E+01  1.277201533318E+00  0.000000000000E+00
 -1.173327732086E+01  1.186851739883E+00  0.000000000000E+00
 -1.081475257874E+01  1.096501946449E+00  0.000000000000E+00
 -2.000000000000E+01  0.000000000000E+00  0.000000000000E+00
 -1.910000038147E+01  9.193437027280E-13  0.000000000000E+00
 -1.820000076294E+01  1.837799227036E-12  0.000000000000E+00
 -1.729999923706E+01  2.757059554617E-12  0.000000000000E+00
 -1.639999961853E+01  3.676930721702E-12  0.000000000000E+00
 -1.550000000000E+01  4.596246560434E-12  0.000000000000E+00
 -1.460000038147E+01  5.515451376864E-12  0.000000000000E+00
 -1.369999980927E+01  6.434878671580E-12  0.000000000000E+00
 -1.280000019073E+01  7.354749621824E-12  0.000000000000E+00
 -1.189999961853E+01  8.274176482859E-12  0.000000000000E+00
 -1.100000000000E+01  9.193825388498E-12  0.000000000000E+00
 -2.000000000000E+01 -2.000000000000E+00  0.000000000000E+00
 -1.908144378662E+01 -1.909742832184E+00  0.000000000000E+00
 -1.816288757324E+01 -1.819485664368E+00  0.000000000000E+00
 -1.724433135986E+01 -1.729228615761E+00  0.000000000000E+00
 -1.632577514648E+01 -1.638971447945E+00  0.000000000000E+00
 -1.540721893311E+01 -1.548714280128E+00  0.000000000000E+00
 -1.448866176605E+01 -1.458457112312E+00  0.000000000000E+00
 -1.357010555267E+01 -1.368200063705E+00  0.000000000000E+00
 -1.265154933929E+01 -1.277942895889E+00  0.000000000000E+00
 -1.173299312592E+01 -1.187685728073E+00  0.000000000000E+00
 -1.081443691254E+01 -1.097428560257E+00  0.000000000000E+00
 -2.000000000000E+01 -4.000000000000E+00  0.000000000000E+00
 -1.903099060059E+01 -3.809172630310E+00  0.000000000000E+00
 -1.806197929382E+01 -3.618345260620E+00  0.000000000000E+00
 -1.709296989441E+01 -3.427518129349E+00  0.000000000000E+00
 -1.612396049500E+01 -3.236690759659E+00  0.000000000000E+00
 -1.515495014191E+01 -3.045863389969E+00  0.000000000000E+00
 -1.418594074249E+01 -2.855036020279E+00  0.000000000000E+00
 -1.321693038940E+01 -2.664208650589E+00  0.000000000000E+00
 -1.224792098999E+01 -2.473381280899E+00  0.000000000000E+00
 -1.127891063690E+01 -2.282554149628E+00  0.000000000000E+00
 -1.030990123749E+01 -2.091726779938E+00  0.000000000000E+00
 -2.000000000000E+01 -6.000000000000E+00  0.000000000000E+00
 -1.895873069763E+01 -5.694159030914E+00  0.000000000000E+00
 -1.791746139526E+01 -5.388318061829E+00  0.000000000000E+00
 -1.687619209290E+01 -5.082477092743E+00  0.000000000000E+00
 -1.583492279053E+01 -4.776636123657E+00  0.000000000000E+00
 -1.479365348816E+01 -4.470795154572E+00  0.000000000000E+00
 -1.375238418579E+01 -4.164954185486E+00  0.000000000000E+00
 -1.271111583710E+01 -3.859112977982E+00  0.000000000000E+00
 -1.166984653473E+01 -3.553272008896E+00  0.000000000000E+00
 -1.062857723236E+01 -3.247431039810E+00  0.000000000000E+00
 -9.587307929993E+00 -2.941589832306E+00  0.000000000000E+00
 -2.000000000000E+01 -8.000000000000E+00  0.000000000000E+00
 -1.887265396118E+01 -7.565281867981E+00  0.000000000000E+00
 -1.774530792236E+01 -7.130563735962E+00  0.000000000000E+00
 -1.661795997620E+01 -6.695845127106E+00  0.000000000000E+00
 -1.549061489105E+01 -6.261126995087E+00  0.000000000000E+00
 -1.436326789856E+01 -5.826408863068E+00  0.000000000000E+00
 -1.323592185974E+01 -5.391690731049E+00  0.000000000000E+00
 -1.210857486725E+01 -4.956972599030E+00  0.000000000000E+00
 -1.098122882843E+01 -4.522254467010E+00  0.000000000000E+00
 -9.853882789612E+00 -4.087535858154E+00  0.000000000000E+00
 -8.726535797119E+00 -3.652817726135E+00  0.000000000000E+00
 -2.000000000000E+01 -1.000000000000E+01  0.000000000000E+00
 -1.877781677246E+01 -9.424263954163E+00  0.000000000000E+00
 -1.755563545227E+01 -8.848527908325E+00  0.000000000000E+00
 -1.633345222473E+01 -8.272791862488E+00  0.000000000000E+00
 -1.511126995087E+01 -7.697056293488E+00  0.000000000000E+00
 -1.388908767700E+01 -7.121320247650E+00  0.000000000000E+00
 -1.266690444946E+01 -6.545584201813E+00  0.000000000000E+00
 -1.144472217560E+01 -5.969848632812E+00  0.000000000000E+00
 -1.022253990173E+01 -5.394112586975E+00  0.000000000000E+00
 -9.000356674194E+00 -4.818376541138E+00  0.000000000000E+00
 -7.778174400330E+00 -4.242640495300E+00  0.000000000000E+00
</DataArray>
</Points>
<Cells>
<DataArray type="Int32" Name="connectivity" format="ascii">
       0      11      12       1
       1      12      13       2
       2      13      14       3
       3      14      15       4
       4      15      16       5
       5      16      17       6
       6      17      18       7
       7      18      19       8
       8      19      20       9
       9      20      21      10
      11      22      23      12
      12      23      24      13
      13      24      25      14
      14      25      26      15
      15      26      27      16
      16      27      28      17
      17      28      29      18
      18      29      30      19
      19      30      31      20
      20      31      32      21
      22      33      34      23
      23      34      35      24
      24      35      36      25
      25      36      37      26
      26      37      38      27
      27      38      39      28
      28      39      40      29
      29      40      41      30
      30      41      42      31
      31      42      43      32
      33      44      45      34
      34      45      46      35
      35      46      47      36
      36      47      48      37
      37      48      49      38
      38      49      50      39
      39      50      51      40
      40      51      52      41
      41      52      53      42
      42      53      54      43
      44      55      56      45
      45      56      57      46
      46      57      58      47
      47      58      59      48
      48      59      60      49
      49      60      61      50
      50      61      62      51
      51      62      63      52
      52      63      64      53
      53      64      65      54
      55      66      67      56
      56      67      68      57
      57      68      69      58
      58      69      70      59
      59      70      71      60
      60      71      72      61
      61      72      73      62
      62      73      74      63
      63      74      75      64
      64      75      76      65
      66      77      78      67
      67      78      79      68
      68      79      80      69
      69      80      81      70
      70      81      82      71
      71      82      83      72
      72      83      84      73
      73      84      85      74
      74      85      86      75
      75      86      87      76
      77      88      89      78
      78      89      90      79
      79      90      91      80
      80      91      92      81
      81      92      93      82
      82      93      94      83
      83      94      95      84
      84      95      96      85
      85      96      97      86
      86      97      98      87
      88      99     100      89
      89     100     101      90
      90     101     102      91
      91     102     103      92
      92     103     104      93
      93     104     105      94
      94     105     106      95
      95     106     107      96
      96     107     108      97
      97     108     109      98
      99     110     111     100
     100     111     112     101
     101     112     113     102
     102     113     114     103
     103     114     115     104
     104     115     116     105
     105     116     117     106
     106     117     118     107
     107     118     119     108
     108     119     120     109
</DataArray>
<DataArray type="Int32" Name="offsets" format="ascii">
 4 8 12 16 20 24 28 32 36 40 44 48 52 56 60 64 68 72 76 80 84 88 92 96 100 104 108 112 116 120 124 128 132 136 140 144 148 152 156 160 164 168 172 176 180 184 188 192 196 200 204 208 212 216 220 224 228 232 236 240 244 248 252 256 260 264 268 272 276 280 284 288 292 296 300 304 308 312 316 320 324 328 332 336 340 344 348 352 356 360 364 368 372 376 380 384 388 392 396 400 
</DataArray>
<DataArray type="UInt8" Name="types" format="ascii">
  9  9  9  9  9  9  9  9  9  9  9  9  9  9  9  9  9  9  9  9  9  9  9  9  9  9  9  9  9  9  9  9  9  9  9  9  9  9  9  9  9  9  9  9  9  9  9  9  9  9  9  9  9  9  9  9  9  9  9  9  9  9  9  9  9  9  9  9  9  9  9  9  9  9  9  9  9  9  9  9  9  9  9  9  9  9  9  9  9  9  9  9  9  9  9  9  9  9  9  9 
</DataArray>
</Cells>
<CellData>
<DataArray type="Int32" Name="mat_id" NumberOfComponents="1" format="ascii">
2
2
2
2
2
2
2
2
2
2
2
2
2
2
2
2
2
2
2
2
2
2
2
2
2
2
2
2
2
2
2
2
2
2
2
2
2
2
2
2
2
2
2
2
2
2
2
2
2
2
2
2
2
2
2
2
2
2
2
2
2
2
2
2
2
2
2
2
2
2
2
2
2
2
2
2
2
2
2
2
2
2
2
2
2
2
2
2
2
2
2
2
2
2
2
2
2
2
2
2
</DataArray>
</CellData>
</Piece>
</UnstructuredGrid>
</VTKFile>
