<?xml version="1.0"?>
<VTKFile type="UnstructuredGrid" version="1.0">
<UnstructuredGrid>
<Piece NumberOfPoints="231" NumberOfCells="200">
<Points>
<DataArray type="Float32" NumberOfComponents="3" format="ascii">
  2.000000000000E+01  1.000000000000E+01  0.000000000000E+00
  1.877781677246E+01  9.424263954163E+00  0.000000000000E+00
  1.755563545227E+01  8.848527908325E+00  0.000000000000E+00
  1.633345222473E+01  8.272791862488E+00  0.000000000000E+00
  1.511126995087E+01  7.697056293488E+00  0.000000000000E+00
  1.388908767700E+01  7.121320247650E+00  0.000000000000E+00
  1.266690444946E+01  6.545584201813E+00  0.000000000000E+00
  1.144472217560E+01  5.969848632812E+00  0.000000000000E+00
  1.022253990173E+01  5.394112586975E+00  0.000000000000E+00
  9.000356674194E+00  4.818376541138E+00  0.000000000000E+00
  7.778174400330E+00  4.242640495300E+00  0.000000000000E+00
  1.800000000000E+01  1.000000000000E+01  0.000000000000E+00
  1.690574836731E+01  9.460228919983E+00  0.000000000000E+00
  1.581149864197E+01  8.920456886292E+00  0.000000000000E+00
  1.471724796295E+01  8.380685806274E+00  0.000000000000E+00
  1.362299728394E+01  7.840914249420E+00  0.000000000000E+00
  1.252874660492E+01  7.301142692566E+00  0.000000000000E+00
  1.143449497223E+01  6.761371135712E+00  0.000000000000E+00
  1.034024429321E+01  6.221600055695E+00  0.000000000000E+00
  9.245993614197E+00  5.681828498840E+00  0.000000000000E+00
  8.151742935181E+00  5.142056941986E+00  0.000000000000E+00
  7.057492256165E+00  4.602285385132E+00  0.000000000000E+00
  1.600000000000E+01  1.000000000000E+01  0.000000000000E+00
  1.503144550323E+01  9.491295814514E+00  0.000000000000E+00
  1.406289005280E+01  8.982591629028E+00  0.000000000000E+00
  1.309433555603E+01  8.473887443542E+00  0.000000000000E+00
  1.212578010559E+01  7.965183734894E+00  0.000000000000E+00
  1.115722560883E+01  7.456479549408E+00  0.000000000000E+00
  1.018867015839E+01  6.947775840759E+00  0.000000000000E+00
  9.220115661621E+00  6.439071655273E+00  0.000000000000E+00
  8.251561164856E+00  5.930367469788E+00  0.000000000000E+00
  7.283005714417E+00  5.421663284302E+00  0.000000000000E+00
  6.314450740814E+00  4.912959575653E+00  0.000000000000E+00
  1.400000000000E+01  1.000000000000E+01  0.000000000000E+00
  1.315547752380E+01  9.517878532410E+00  0.000000000000E+00
  1.231095504761E+01  9.035757064819E+00  0.000000000000E+00
  1.146643257141E+01  8.553636550903E+00  0.000000000000E+00
  1.062191009521E+01  8.071515083313E+00  0.000000000000E+00
  9.777387619019E+00  7.589393615723E+00  0.000000000000E+00
  8.932865142822E+00  7.107272624969E+00  0.000000000000E+00
  8.088342666626E+00  6.625151157379E+00  0.000000000000E+00
  7.243820667267E+00  6.143030166626E+00  0.000000000000E+00
  6.399298191071E+00  5.660908699036E+00  0.000000000000E+00
  5.554775714874E+00  5.178787708282E+00  0.000000000000E+00
  1.200000000000E+01  1.000000000000E+01  0.000000000000E+00
  1.127810573578E+01  9.540362358093E+00  0.000000000000E+00
  1.055621147156E+01  9.080723762512E+00  0.000000000000E+00
  9.834318161011E+00  8.621086120605E+00  0.000000000000E+00
  9.112423896790E+00  8.161448478699E+00  0.000000000000E+00
  8.390529632568E+00  7.701810359955E+00  0.000000000000E+00
  7.668635368347E+00  7.242172241211E+00  0.000000000000E+00
  6.946741580963E+00  6.782534599304E+00  0.000000000000E+00
  6.224847316742E+00  6.322896480560E+00  0.000000000000E+00
  5.502953529358E+00  5.863258361816E+00  0.000000000000E+00
  4.781059265137E+00  5.403620719910E+00  0.000000000000E+00
  1.000000000000E+01  1.000000000000E+01  0.000000000000E+00
  9.399790763855E+00  9.558969497681E+00  0.000000000000E+00
  8.799581527710E+00  9.117938041687E+00  0.000000000000E+00
  8.199373245239E+00  8.676907539368E+00  0.000000000000E+00
  7.599164009094E+00  8.235876083374E+00  0.000000000000E+00
  6.998954772949E+00  7.794845581055E+00  0.000000000000E+00
  6.398746013641E+00  7.353814601898E+00  0.000000000000E+00
  5.798536777496E+00  6.912783622742E+00  0.000000000000E+00
  5.198328018188E+00  6.471752643585E+00  0.000000000000E+00
  4.598118782043E+00  6.030721664429E+00  0.000000000000E+00
  3.997910022736E+00  5.589690685272E+00  0.000000000000E+00
  8.000000000000E+00  1.000000000000E+01  0.000000000000E+00
  7.520635604858E+00  9.573945045471E+00  0.000000000000E+00
  7.041271209717E+00  9.147890090942E+00  0.000000000000E+00
  6.561906814575E+00  8.721834182739E+00  0.000000000000E+00
  6.082542896271E+00  8.295779228210E+00  0.000000000000E+00
  5.603178501129E+00  7.869724273682E+00  0.000000000000E+00
  5.123814105988E+00  7.443669319153E+00  0.000000000000E+00
  4.644449710846E+00  7.017614364624E+00  0.000000000000E+00
  4.165085315704E+00  6.591558933258E+00  0.000000000000E+00
  3.685721158981E+00  6.165503978729E+00  0.000000000000E+00
  3.206356763840E+00  5.739449024200E+00  0.000000000000E+00
  6.000000000000E+00  1.000000000000E+01  0.000000000000E+00
  5.640969276428E+00  9.585426330566E+00  0.000000000000E+00
  5.281938552856E+00  9.170852661133E+00  0.000000000000E+00
  4.922907829285E+00  8.756278991699E+00  0.000000000000E+00
  4.563876628876E+00  8.341705322266E+00  0.000000000000E+00
  4.204845905304E+00  7.927132129669E+00  0.000000000000E+00
  3.845815181732E+00  7.512558460236E+00  0.000000000000E+00
  3.486784458160E+00  7.097985267639E+00  0.000000000000E+00
  3.127753734589E+00  6.683411598206E+00  0.000000000000E+00
  2.768723011017E+00  6.268837928772E+00  0.000000000000E+00
  2.409692049026E+00  5.854264259338E+00  0.000000000000E+00
  4.000000000000E+00  1.000000000000E+01  0.000000000000E+00
  3.760805368423E+00  9.593554496765E+00  0.000000000000E+00
  3.521610498428E+00  9.187108039856E+00  0.000000000000E+00
  3.282415866852E+00  8.780662536621E+00  0.000000000000E+00
  3.043221235275E+00  8.374217033386E+00  0.000000000000E+00
  2.804026365280E+00  7.967771053314E+00  0.000000000000E+00
  2.564831733704E+00  7.561325073242E+00  0.000000000000E+00
  2.325637102127E+00  7.154879570007E+00  0.000000000000E+00
  2.086442232132E+00  6.748433589935E+00  0.000000000000E+00
  1.847247600555E+00  6.341988086700E+00  0.000000000000E+00
  1.608052849770E+00  5.935542106628E+00  0.000000000000E+00
  2.000000000000E+00  1.000000000000E+01  0.000000000000E+00
  1.880447149277E+00  9.598393440247E+00  0.000000000000E+00
  1.760894298553E+00  9.196786880493E+00  0.000000000000E+00
  1.641341447830E+00  8.795180320740E+00  0.000000000000E+00
  1.521788477898E+00  8.393572807312E+00  0.000000000000E+00
  1.402235627174E+00  7.991966247559E+00  0.000000000000E+00
  1.282682776451E+00  7.590359687805E+00  0.000000000000E+00
  1.163129925728E+00  7.188753128052E+00  0.000000000000E+00
  1.043577075005E+00  6.787146091461E+00  0.000000000000E+00
  9.240242242813E-01  6.385539531708E+00  0.000000000000E+00
  8.044713139534E-01  5.983932971954E+00  0.000000000000E+00
  0.000000000000E+00  1.000000000000E+01  0.000000000000E+00
 -8.639379666420E-05  9.600000381470E+00  0.000000000000E+00
 -1.727875933284E-04  9.199999809265E+00  0.000000000000E+00
 -2.591813972685E-04  8.800000190735E+00  0.000000000000E+00
 -3.455751866568E-04  8.399999618530E+00  0.000000000000E+00
 -4.319689760450E-04  8.000000000000E+00  0.000000000000E+00
 -5.183627945371E-04  7.599999904633E+00  0.000000000000E+00
 -6.047565839253E-04  7.199999809265E+00  0.000000000000E+00
 -6.911503733136E-04  6.800000190735E+00  0.000000000000E+00
 -7.775441627018E-04  6.400000095367E+00  0.000000000000E+00
 -8.639379520901E-04  6.000000000000E+00  0.000000000000E+00
 -2.000000000000E+00  1.000000000000E+01  0.000000000000E+00
 -1.880533337593E+00  9.598389625549E+00  0.000000000000E+00
 -1.761066555977E+00  9.196779251099E+00  0.000000000000E+00
 -1.641599893570E+00  8.795169830322E+00  0.000000000000E+00
 -1.522133231163E+00  8.393559455872E+00  0.000000000000E+00
 -1.402666449547E+00  7.991949081421E+00  0.000000000000E+00
 -1.283199787140E+00  7.590339183807E+00  0.000000000000E+00
 -1.163733124733E+00  7.188728809357E+00  0.000000000000E+00
 -1.044266343117E+00  6.787118911743E+00  0.000000000000E+00
 -9.247996807098E-01  6.385508537292E+00  0.000000000000E+00
 -8.053329586983E-01  5.983898162842E+00  0.000000000000E+00
 -4.000000000000E+00  1.000000000000E+01  0.000000000000E+00
 -3.760890722275E+00  9.593546867371E+00  0.000000000000E+00
 -3.521781444550E+00  9.187094688416E+00  0.000000000000E+00
 -3.282672166824E+00  8.780641555786E+00  0.000000000000E+00
 -3.043562889099E+00  8.374189376831E+00  0.000000000000E+00
 -2.804453849792E+00  7.967736721039E+00  0.000000000000E+00
 -2.565344572067E+00  7.561284065247E+00  0.000000000000E+00
 -2.326235294342E+00  7.154831409454E+00  0.000000000000E+00
 -2.087126016617E+00  6.748378753662E+00  0.000000000000E+00
 -1.848016738892E+00  6.341926097870E+00  0.000000000000E+00
 -1.608907461166E+00  5.935473442078E+00  0.000000000000E+00
 -6.000000000000E+00  1.000000000000E+01  0.000000000000E+00
 -5.641053676605E+00  9.585415840149E+00  0.000000000000E+00
 -5.282106876373E+00  9.170832633972E+00  0.000000000000E+00
 -4.923160552979E+00  8.756248474121E+00  0.000000000000E+00
 -4.564214229584E+00  8.341664314270E+00  0.000000000000E+00
 -4.205267429352E+00  7.927080631256E+00  0.000000000000E+00
 -3.846321105957E+00  7.512496471405E+00  0.000000000000E+00
 -3.487374544144E+00  7.097912788391E+00  0.000000000000E+00
 -3.128427982330E+00  6.683329105377E+00  0.000000000000E+00
 -2.769481658936E+00  6.268744945526E+00  0.000000000000E+00
 -2.410535097122E+00  5.854161262512E+00  0.000000000000E+00
 -8.000000000000E+00  1.000000000000E+01  0.000000000000E+00
 -7.520718097687E+00  9.573930740356E+00  0.000000000000E+00
 -7.041436672211E+00  9.147862434387E+00  0.000000000000E+00
 -6.562154769897E+00  8.721793174744E+00  0.000000000000E+00
 -6.082873344421E+00  8.295724868774E+00  0.000000000000E+00
 -5.603591442108E+00  7.869655609131E+00  0.000000000000E+00
 -5.124310016632E+00  7.443586826324E+00  0.000000000000E+00
 -4.645028114319E+00  7.017518043518E+00  0.000000000000E+00
 -4.165746688843E+00  6.591449260712E+00  0.000000000000E+00
 -3.686464786530E+00  6.165380477905E+00  0.000000000000E+00
 -3.207183122635E+00  5.739311218262E+00  0.000000000000E+00
 -1.000000000000E+01  1.000000000000E+01  0.000000000000E+00
 -9.399871826172E+00  9.558952331543E+00  0.000000000000E+00
 -8.799742698669E+00  9.117903709412E+00  0.000000000000E+00
 -8.199614524841E+00  8.676856040955E+00  0.000000000000E+00
 -7.599485874176E+00  8.235807418823E+00  0.000000000000E+00
 -6.999357223511E+00  7.794759750366E+00  0.000000000000E+00
 -6.399229049683E+00  7.353711605072E+00  0.000000000000E+00
 -5.799100399017E+00  6.912663459778E+00  0.000000000000E+00
 -5.198971748352E+00  6.471615791321E+00  0.000000000000E+00
 -4.598843097687E+00  6.030567646027E+00  0.000000000000E+00
 -3.998714685440E+00  5.589519500732E+00  0.000000000000E+00
 -1.200000000000E+01  1.000000000000E+01  0.000000000000E+00
 -1.127818393707E+01  9.540341377258E+00  0.000000000000E+00
 -1.055636787415E+01  9.080682754517E+00  0.000000000000E+00
 -9.834550857544E+00  8.621025085449E+00  0.000000000000E+00
 -9.112734794617E+00  8.161366462708E+00  0.000000000000E+00
 -8.390918731689E+00  7.701707839966E+00  0.000000000000E+00
 -7.669102191925E+00  7.242049694061E+00  0.000000000000E+00
 -6.947286128998E+00  6.782391071320E+00  0.000000000000E+00
 -6.225470066071E+00  6.322732448578E+00  0.000000000000E+00
 -5.503653526306E+00  5.863074302673E+00  0.000000000000E+00
 -4.781837463379E+00  5.403415679932E+00  0.000000000000E+00
 -1.400000000000E+01  1.000000000000E+01  0.000000000000E+00
 -1.315555191040E+01  9.517854690552E+00  0.000000000000E+00
 -1.231110477448E+01  9.035710334778E+00  0.000000000000E+00
 -1.146665668488E+01  8.553565025330E+00  0.000000000000E+00
 -1.062220859528E+01  8.071419715881E+00  0.000000000000E+00
 -9.777760505676E+00  7.589274883270E+00  0.000000000000E+00
 -8.933313369751E+00  7.107129573822E+00  0.000000000000E+00
 -8.088865280151E+00  6.624984741211E+00  0.000000000000E+00
 -7.244417190552E+00  6.142839908600E+00  0.000000000000E+00
 -6.399969577789E+00  5.660694599152E+00  0.000000000000E+00
 -5.555521488190E+00  5.178549766541E+00  0.000000000000E+00
 -1.600000000000E+01  1.000000000000E+01  0.000000000000E+00
 -1.503151607513E+01  9.491269111633E+00  0.000000000000E+00
 -1.406303119659E+01  8.982538223267E+00  0.000000000000E+00
 -1.309454727173E+01  8.473806381226E+00  0.000000000000E+00
 -1.212606334686E+01  7.965075492859E+00  0.000000000000E+00
 -1.115757942200E+01  7.456344604492E+00  0.000000000000E+00
 -1.018909454346E+01  6.947613239288E+00  0.000000000000E+00
 -9.220610618591E+00  6.438882350922E+00  0.000000000000E+00
 -8.252126693726E+00  5.930150985718E+00  0.000000000000E+00
 -7.283642292023E+00  5.421420097351E+00  0.000000000000E+00
 -6.315158367157E+00  4.912688732147E+00  0.000000000000E+00
 -1.800000000000E+01  1.000000000000E+01  0.000000000000E+00
 -1.690581512451E+01  9.460198402405E+00  0.000000000000E+00
 -1.581163120270E+01  8.920396804810E+00  0.000000000000E+00
 -1.471744632721E+01  8.380595207214E+00  0.000000000000E+00
 -1.362326240540E+01  7.840793132782E+00  0.000000000000E+00
 -1.252907752991E+01  7.300991535187E+00  0.000000000000E+00
 -1.143489265442E+01  6.761189937592E+00  0.000000000000E+00
 -1.034070873260E+01  6.221388339996E+00  0.000000000000E+00
 -9.246523857117E+00  5.681586742401E+00  0.000000000000E+00
 -8.152339935303E+00  5.141784667969E+00  0.000000000000E+00
 -7.058155059814E+00  4.601983070374E+00  0.000000000000E+00
 -2.000000000000E+01  1.000000000000E+01  0.000000000000E+00
 -1.877781677246E+01  9.424263954163E+00  0.000000000000E+00
 -1.755563545227E+01  8.848527908325E+00  0.000000000000E+00
 -1.633345222473E+01  8.272791862488E+00  0.000000000000E+00
 -1.511126995087E+01  7.697056293488E+00  0.000000000000E+00
 -1.388908767700E+01  7.121320247650E+00  0.000000000000E+00
 -1.266690444946E+01  6.545584201813E+00  0.000000000000E+00
 -1.144472217560E+01  5.969848632812E+00  0.000000000000E+00
 -1.022253990173E+01  5.394112586975E+00  0.000000000000E+00
 -9.000356674194E+00  4.818376541138E+00  0.000000000000E+00
 -7.778174400330E+00  4.242640495300E+00  0.000000000000E+00
</DataArray>
</Points>
<Cells>
<DataArray type="Int32" Name="connectivity" format="ascii">
       0      11      12       1
       1      12      13       2
       2      13      14       3
       3      14      15       4
       4      15      16       5
       5      16      17       6
       6      17      18       7
       7      18      19       8
       8      19      20       9
       9      20      21      10
      11      22      23      12
      12      23      24      13
      13      24      25      14
      14      25      26      15
      15      26      27      16
      16      27      28      17
      17      28      29      18
      18      29      30      19
      19      30      31      20
      20      31      32      21
      22      33      34      23
      23      34      35      24
      24      35      36      25
      25      36      37      26
      26      37      38      27
      27      38      39      28
      28      39      40      29
      29      40      41      30
      30      41      42      31
      31      42      43      32
      33      44      45      34
      34      45      46      35
      35      46      47      36
      36      47      48      37
      37      48      49      38
      38      49      50      39
      39      50      51      40
      40      51      52      41
      41      52      53      42
      42      53      54      43
      44      55      56      45
      45      56      57      46
      46      57      58      47
      47      58      59      48
      48      59      60      49
      49      60      61      50
      50      61      62      51
      51      62      63      52
      52      63      64      53
      53      64      65      54
      55      66      67      56
      56      67      68      57
      57      68      69      58
      58      69      70      59
      59      70      71      60
      60      71      72      61
      61      72      73      62
      62      73      74      63
      63      74      75      64
      64      75      76      65
      66      77      78      67
      67      78      79      68
      68      79      80      69
      69      80      81      70
      70      81      82      71
      71      82      83      72
      72      83      84      73
      73      84      85      74
      74      85      86      75
      75      86      87      76
      77      88      89      78
      78      89      90      79
      79      90      91      80
      80      91      92      81
      81      92      93      82
      82      93      94      83
      83      94      95      84
      84      95      96      85
      85      96      97      86
      86      97      98      87
      88      99     100      89
      89     100     101      90
      90     101     102      91
      91     102     103      92
      92     103     104      93
      93     104     105      94
      94     105     106      95
      95     106     107      96
      96     107     108      97
      97     108     109      98
      99     110     111     100
     100     111     112     101
     101     112     113     102
     102     113     114     103
     103     114     115     104
     104     115     116     105
     105     116     117     106
     106     117     118     107
     107     118     119     108
     108     119     120     109
     110     121     122     111
     111     122     123     112
     112     123     124     113
     113     124     125     114
     114     125     126     115
     115     126     127     116
     116     127     128     117
     117     128     129     118
     118     129     130     119
     119     130     131     120
     121     132     133     122
     122     133     134     123
     123     134     135     124
     124     135     136     125
     125     136     137     126
     126     137     138     127
     127     138     139     128
     128     139     140     129
     129     140     141     130
     130     141     142     131
     132     143     144     133
     133     144     145     134
     134     145     146     135
     135     146     147     136
     136     147     148     137
     137     148     149     138
     138     149     150     139
     139     150     151     140
     140     151     152     141
     141     152     153     142
     143     154     155     144
     144     155     156     145
     145     156     157     146
     146     157     158     147
     147     158     159     148
     148     159     160     149
     149     160     161     150
     150     161     162     151
     151     162     163     152
     152     163     164     153
     154     165     166     155
     155     166     167     156
     156     167     168     157
     157     168     169     158
     158     169     170     159
     159     170     171     160
     160     171     172     161
     161     172     173     162
     162     173     174     163
     163     174     175     164
     165     176     177     166
     166     177     178     167
     167     178     179     168
     168     179     180     169
     169     180     181     170
     170     181     182     171
     171     182     183     172
     172     183     184     173
     173     184     185     174
     174     185     186     175
     176     187     188     177
     177     188     189     178
     178     189     190     179
     179     190     191     180
     180     191     192     181
     181     192     193     182
     182     193     194     183
     183     194     195     184
     184     195     196     185
     185     196     197     186
     187     198     199     188
     188     199     200     189
     189     200     201     190
     190     201     202     191
     191     202     203     192
     192     203     204     193
     193     204     205     194
     194     205     206     195
     195     206     207     196
     196     207     208     197
     198     209     210     199
     199     210     211     200
     200     211     212     201
     201     212     213     202
     202     213     214     203
     203     214     215     204
     204     215     216     205
     205     216     217     206
     206     217     218     207
     207     218     219     208
     209     220     221     210
     210     221     222     211
     211     222     223     212
     212     223     224     213
     213     224     225     214
     214     225     226     215
     215     226     227     216
     216     227     228     217
     217     228     229     218
     218     229     230     219
</DataArray>
<DataArray type="Int32" Name="offsets" format="ascii">
 4 8 12 16 20 24 28 32 36 40 44 48 52 56 60 64 68 72 76 80 84 88 92 96 100 104 108 112 116 120 124 128 132 136 140 144 148 152 156 160 164 168 172 176 180 184 188 192 196 200 204 208 212 216 220 224 228 232 236 240 244 248 252 256 260 264 268 272 276 280 284 288 292 296 300 304 308 312 316 320 324 328 332 336 340 344 348 352 356 360 364 368 372 376 380 384 388 392 396 400 404 408 412 416 420 424 428 432 436 440 444 448 452 456 460 464 468 472 476 480 484 488 492 496 500 504 508 512 516 520 524 528 532 536 540 544 548 552 556 560 564 568 572 576 580 584 588 592 596 600 604 608 612 616 620 624 628 632 636 640 644 648 652 656 660 664 668 672 676 680 684 688 692 696 700 704 708 712 716 720 724 728 732 736 740 744 748 752 756 760 764 768 772 776 780 784 788 792 796 800 
</DataArray>
<DataArray type="UInt8" Name="types" format="ascii">
  9  9  9  9  9  9  9  9  9  9  9  9  9  9  9  9  9  9  9  9  9  9  9  9  9  9  9  9  9  9  9  9  9  9  9  9  9  9  9  9  9  9  9  9  9  9  9  9  9  9  9  9  9  9  9  9  9  9  9  9  9  9  9  9  9  9  9  9  9  9  9  9  9  9  9  9  9  9  9  9  9  9  9  9  9  9  9  9  9  9  9  9  9  9  9  9  9  9  9  9  9  9  9  9  9  9  9  9  9  9  9  9  9  9  9  9  9  9  9  9  9  9  9  9  9  9  9  9  9  9  9  9  9  9  9  9  9  9  9  9  9  9  9  9  9  9  9  9  9  9  9  9  9  9  9  9  9  9  9  9  9  9  9  9  9  9  9  9  9  9  9  9  9  9  9  9  9  9  9  9  9  9  9  9  9  9  9  9  9  9  9  9  9  9  9  9  9  9  9  9 
</DataArray>
</Cells>
<CellData>
<DataArray type="Int32" Name="mat_id" NumberOfComponents="1" format="ascii">
2
2
2
2
2
2
2
2
2
2
2
2
2
2
2
2
2
2
2
2
2
2
2
2
2
2
2
2
2
2
2
2
2
2
2
2
2
2
2
2
2
2
2
2
2
2
2
2
2
2
2
2
2
2
2
2
2
2
2
2
2
2
2
2
2
2
2
2
2
2
2
2
2
2
2
2
2
2
2
2
2
2
2
2
2
2
2
2
2
2
2
2
2
2
2
2
2
2
2
2
2
2
2
2
2
2
2
2
2
2
2
2
2
2
2
2
2
2
2
2
2
2
2
2
2
2
2
2
2
2
2
2
2
2
2
2
2
2
2
2
2
2
2
2
2
2
2
2
2
2
2
2
2
2
2
2
2
2
2
2
2
2
2
2
2
2
2
2
2
2
2
2
2
2
2
2
2
2
2
2
2
2
2
2
2
2
2
2
2
2
2
2
2
2
2
2
2
2
2
2
</DataArray>
</CellData>
</Piece>
</UnstructuredGrid>
</VTKFile>
