<?xml version="1.0"?>
<VTKFile type="UnstructuredGrid" version="1.0">
<UnstructuredGrid>
<Piece NumberOfPoints="105" NumberOfCells="80">
<Points>
<DataArray type="Float32" NumberOfComponents="3" format="ascii">
 -7.778174400330E+00 -4.242640495300E+00  0.000000000000E+00
 -7.601397991180E+00 -4.065864086151E+00  0.000000000000E+00
 -7.424621105194E+00 -3.889087200165E+00  0.000000000000E+00
 -7.247844696045E+00 -3.712310552597E+00  0.000000000000E+00
 -7.071067810059E+00 -3.535533905029E+00  0.000000000000E+00
 -7.057492256165E+00 -4.602285385132E+00  0.000000000000E+00
 -6.895286560059E+00 -4.411279201508E+00  0.000000000000E+00
 -6.733081340790E+00 -4.220272541046E+00  0.000000000000E+00
 -6.570875644684E+00 -4.029266357422E+00  0.000000000000E+00
 -6.408669948578E+00 -3.838259696960E+00  0.000000000000E+00
 -6.314450740814E+00 -4.912959575653E+00  0.000000000000E+00
 -6.167884349823E+00 -4.709322452545E+00  0.000000000000E+00
 -6.021317958832E+00 -4.505685329437E+00  0.000000000000E+00
 -5.874751091003E+00 -4.302048206329E+00  0.000000000000E+00
 -5.728184700012E+00 -4.098411560059E+00  0.000000000000E+00
 -5.554775714874E+00 -5.178787708282E+00  0.000000000000E+00
 -5.424800872803E+00 -4.964093685150E+00  0.000000000000E+00
 -5.294825553894E+00 -4.749400138855E+00  0.000000000000E+00
 -5.164850234985E+00 -4.534706115723E+00  0.000000000000E+00
 -5.034874916077E+00 -4.320012569427E+00  0.000000000000E+00
 -4.781059265137E+00 -5.403620719910E+00  0.000000000000E+00
 -4.668506622314E+00 -5.179406642914E+00  0.000000000000E+00
 -4.555954456329E+00 -4.955193042755E+00  0.000000000000E+00
 -4.443402290344E+00 -4.730979442596E+00  0.000000000000E+00
 -4.330849647522E+00 -4.506765365601E+00  0.000000000000E+00
 -3.997910022736E+00 -5.589690685272E+00  0.000000000000E+00
 -3.903205633163E+00 -5.357534885406E+00  0.000000000000E+00
 -3.808501482010E+00 -5.125378608704E+00  0.000000000000E+00
 -3.713797330856E+00 -4.893222808838E+00  0.000000000000E+00
 -3.619093179703E+00 -4.661066532135E+00  0.000000000000E+00
 -3.206356763840E+00 -5.739449024200E+00  0.000000000000E+00
 -3.130291223526E+00 -5.500790596008E+00  0.000000000000E+00
 -3.054225921631E+00 -5.262132167816E+00  0.000000000000E+00
 -2.978160619736E+00 -5.023473739624E+00  0.000000000000E+00
 -2.902095079422E+00 -4.784815788269E+00  0.000000000000E+00
 -2.409692049026E+00 -5.854264259338E+00  0.000000000000E+00
 -2.352243900299E+00 -5.610637187958E+00  0.000000000000E+00
 -2.294795751572E+00 -5.367009639740E+00  0.000000000000E+00
 -2.237347602844E+00 -5.123382568359E+00  0.000000000000E+00
 -2.179899454117E+00 -4.879755020142E+00  0.000000000000E+00
 -1.608052849770E+00 -5.935542106628E+00  0.000000000000E+00
 -1.569757938385E+00 -5.688356876373E+00  0.000000000000E+00
 -1.531463027000E+00 -5.441171169281E+00  0.000000000000E+00
 -1.493168115616E+00 -5.193985939026E+00  0.000000000000E+00
 -1.454873204231E+00 -4.946800708771E+00  0.000000000000E+00
 -8.044713139534E-01 -5.983932971954E+00  0.000000000000E+00
 -7.852087616920E-01 -5.734638214111E+00  0.000000000000E+00
 -7.659462094307E-01 -5.485343456268E+00  0.000000000000E+00
 -7.466835975647E-01 -5.236048698425E+00  0.000000000000E+00
 -7.274210453033E-01 -4.986753940582E+00  0.000000000000E+00
  8.639379520901E-04 -6.000000000000E+00  0.000000000000E+00
  8.443029946648E-04 -5.750000000000E+00  0.000000000000E+00
  8.246680372395E-04 -5.500000000000E+00  0.000000000000E+00
  8.050330798142E-04 -5.250000000000E+00  0.000000000000E+00
  7.853981223889E-04 -5.000000000000E+00  0.000000000000E+00
  8.053329586983E-01 -5.983898162842E+00  0.000000000000E+00
  7.860507965088E-01 -5.734605312347E+00  0.000000000000E+00
  7.667686343193E-01 -5.485311985016E+00  0.000000000000E+00
  7.474865317345E-01 -5.236018657684E+00  0.000000000000E+00
  7.282043695450E-01 -4.986725330353E+00  0.000000000000E+00
  1.608907461166E+00 -5.935473442078E+00  0.000000000000E+00
  1.570593237877E+00 -5.688290596008E+00  0.000000000000E+00
  1.532278895378E+00 -5.441108226776E+00  0.000000000000E+00
  1.493964552879E+00 -5.193925857544E+00  0.000000000000E+00
  1.455650210381E+00 -4.946743488312E+00  0.000000000000E+00
  2.410535097122E+00 -5.854161262512E+00  0.000000000000E+00
  2.353067874908E+00 -5.610538005829E+00  0.000000000000E+00
  2.295600414276E+00 -5.366915225983E+00  0.000000000000E+00
  2.238133192062E+00 -5.123292446136E+00  0.000000000000E+00
  2.180665969849E+00 -4.879669666290E+00  0.000000000000E+00
  3.207183122635E+00 -5.739311218262E+00  0.000000000000E+00
  3.131098985672E+00 -5.500658988953E+00  0.000000000000E+00
  3.055014848709E+00 -5.262006759644E+00  0.000000000000E+00
  2.978930950165E+00 -5.023354053497E+00  0.000000000000E+00
  2.902846813202E+00 -4.784701824188E+00  0.000000000000E+00
  3.998714685440E+00 -5.589519500732E+00  0.000000000000E+00
  3.903992414474E+00 -5.357370853424E+00  0.000000000000E+00
  3.809270143509E+00 -5.125221729279E+00  0.000000000000E+00
  3.714547634125E+00 -4.893073081970E+00  0.000000000000E+00
  3.619825363159E+00 -4.660924434662E+00  0.000000000000E+00
  4.781837463379E+00 -5.403415679932E+00  0.000000000000E+00
  4.669267177582E+00 -5.179210662842E+00  0.000000000000E+00
  4.556697368622E+00 -4.955005645752E+00  0.000000000000E+00
  4.444127559662E+00 -4.730800628662E+00  0.000000000000E+00
  4.331557750702E+00 -4.506595611572E+00  0.000000000000E+00
  5.555521488190E+00 -5.178549766541E+00  0.000000000000E+00
  5.425529479980E+00 -4.963865756989E+00  0.000000000000E+00
  5.295537471771E+00 -4.749182224274E+00  0.000000000000E+00
  5.165545463562E+00 -4.534498691559E+00  0.000000000000E+00
  5.035553455353E+00 -4.319814682007E+00  0.000000000000E+00
  6.315158367157E+00 -4.912688732147E+00  0.000000000000E+00
  6.168575763702E+00 -4.709063053131E+00  0.000000000000E+00
  6.021993160248E+00 -4.505437374115E+00  0.000000000000E+00
  5.875411033630E+00 -4.301812171936E+00  0.000000000000E+00
  5.728828430176E+00 -4.098186492920E+00  0.000000000000E+00
  7.058155059814E+00 -4.601983070374E+00  0.000000000000E+00
  6.895934581757E+00 -4.410989284515E+00  0.000000000000E+00
  6.733714103699E+00 -4.219995498657E+00  0.000000000000E+00
  6.571493625641E+00 -4.029001712799E+00  0.000000000000E+00
  6.409272670746E+00 -3.838007926941E+00  0.000000000000E+00
  7.778174400330E+00 -4.242640495300E+00  0.000000000000E+00
  7.601397991180E+00 -4.065864086151E+00  0.000000000000E+00
  7.424621105194E+00 -3.889087200165E+00  0.000000000000E+00
  7.247844696045E+00 -3.712310552597E+00  0.000000000000E+00
  7.071067810059E+00 -3.535533905029E+00  0.000000000000E+00
</DataArray>
</Points>
<Cells>
<DataArray type="Int32" Name="connectivity" format="ascii">
       0       5       6       1
       1       6       7       2
       2       7       8       3
       3       8       9       4
       5      10      11       6
       6      11      12       7
       7      12      13       8
       8      13      14       9
      10      15      16      11
      11      16      17      12
      12      17      18      13
      13      18      19      14
      15      20      21      16
      16      21      22      17
      17      22      23      18
      18      23      24      19
      20      25      26      21
      21      26      27      22
      22      27      28      23
      23      28      29      24
      25      30      31      26
      26      31      32      27
      27      32      33      28
      28      33      34      29
      30      35      36      31
      31      36      37      32
      32      37      38      33
      33      38      39      34
      35      40      41      36
      36      41      42      37
      37      42      43      38
      38      43      44      39
      40      45      46      41
      41      46      47      42
      42      47      48      43
      43      48      49      44
      45      50      51      46
      46      51      52      47
      47      52      53      48
      48      53      54      49
      50      55      56      51
      51      56      57      52
      52      57      58      53
      53      58      59      54
      55      60      61      56
      56      61      62      57
      57      62      63      58
      58      63      64      59
      60      65      66      61
      61      66      67      62
      62      67      68      63
      63      68      69      64
      65      70      71      66
      66      71      72      67
      67      72      73      68
      68      73      74      69
      70      75      76      71
      71      76      77      72
      72      77      78      73
      73      78      79      74
      75      80      81      76
      76      81      82      77
      77      82      83      78
      78      83      84      79
      80      85      86      81
      81      86      87      82
      82      87      88      83
      83      88      89      84
      85      90      91      86
      86      91      92      87
      87      92      93      88
      88      93      94      89
      90      95      96      91
      91      96      97      92
      92      97      98      93
      93      98      99      94
      95     100     101      96
      96     101     102      97
      97     102     103      98
      98     103     104      99
</DataArray>
<DataArray type="Int32" Name="offsets" format="ascii">
 4 8 12 16 20 24 28 32 36 40 44 48 52 56 60 64 68 72 76 80 84 88 92 96 100 104 108 112 116 120 124 128 132 136 140 144 148 152 156 160 164 168 172 176 180 184 188 192 196 200 204 208 212 216 220 224 228 232 236 240 244 248 252 256 260 264 268 272 276 280 284 288 292 296 300 304 308 312 316 320 
</DataArray>
<DataArray type="UInt8" Name="types" format="ascii">
  9  9  9  9  9  9  9  9  9  9  9  9  9  9  9  9  9  9  9  9  9  9  9  9  9  9  9  9  9  9  9  9  9  9  9  9  9  9  9  9  9  9  9  9  9  9  9  9  9  9  9  9  9  9  9  9  9  9  9  9  9  9  9  9  9  9  9  9  9  9  9  9  9  9  9  9  9  9  9  9 
</DataArray>
</Cells>
<CellData>
<DataArray type="Int32" Name="mat_id" NumberOfComponents="1" format="ascii">
1
1
1
1
1
1
1
1
1
1
1
1
1
1
1
1
1
1
1
1
1
1
1
1
1
1
1
1
1
1
1
1
1
1
1
1
1
1
1
1
1
1
1
1
1
1
1
1
1
1
1
1
1
1
1
1
1
1
1
1
1
1
1
1
1
1
1
1
1
1
1
1
1
1
1
1
1
1
1
1
</DataArray>
</CellData>
</Piece>
</UnstructuredGrid>
</VTKFile>
